<?xml version="1.0" encoding="UTF-8" standalone="no" ?>
<VTKFile byte_order="LittleEndian" type="UnstructuredGrid" version="0.1">
  <UnstructuredGrid>
    <Piece NumberOfCells="0" NumberOfPoints="0">
      <PointData>
        <DataArray Name="mass" NumberOfComponents="1" format="ascii" type="Float32"/>
        <DataArray Name="velocity" NumberOfComponents="3" format="ascii" type="Float32"/>
        <DataArray Name="force" NumberOfComponents="3" format="ascii" type="Float32"/>
        <DataArray Name="type" NumberOfComponents="1" format="ascii" type="Int32"/>
      </PointData>
      <CellData/>
      <Points>
        <DataArray Name="points" NumberOfComponents="3" format="ascii" type="Float32"/>
      </Points>
      <Cells>
        <DataArray Name="types" NumberOfComponents="0" format="ascii" type="Float32"/>
      </Cells>
    </Piece>
  </UnstructuredGrid>
</VTKFile>
